# vtk DataFile Version 3.0
MOAB 4.1.0pre
ASCII
DATASET UNSTRUCTURED_GRID
POINTS 928 double
-2 -2.449293598e-16 1.5
-1.827090915 -0.8134732862 1.5
-1.338261213 -1.486289651 1.5
-0.6180339887 -1.902113033 1.5
0.2090569265 -1.989043791 1.5
1 -1.732050808 1.5
1.618033989 -1.175570505 1.5
1.956295201 -0.4158233816 1.5
1.956295201 0.4158233816 1.5
1.618033989 1.175570505 1.5
1 1.732050808 1.5
0.2090569265 1.989043791 1.5
-0.6180339887 1.902113033 1.5
-1.338261213 1.486289651 1.5
-1.827090915 0.8134732862 1.5
2 0 6
1.827090915 0.8134732862 6
1.338261213 1.486289651 6
0.6180339887 1.902113033 6
-0.2090569265 1.989043791 6
-1 1.732050808 6
-1.618033989 1.175570505 6
-1.956295201 0.4158233816 6
-1.956295201 -0.4158233816 6
-1.618033989 -1.175570505 6
-1 -1.732050808 6
-0.2090569265 -1.989043791 6
0.6180339887 -1.902113033 6
1.338261213 -1.486289651 6
1.827090915 -0.8134732862 6
-0.8683980224 1.801633946 3.754199408
-0.048861667 1.999403045 3.736633582
0.7770114356 1.842892625 3.726960604
1.462671915 1.364034776 3.705937026
1.885281076 0.6676191 3.653653452
1.999998753 0.002233152982 3.504215644
1.886449224 -0.6643111652 3.652870997
1.460244478 -1.366633112 3.704807192
0.7732328097 -1.844481234 3.722723054
-0.05381511233 -1.999275852 3.728917947
-0.8699627523 -1.800878899 3.73371953
-1.535855418 -1.281073041 3.747726117
-1.550777536 1.262968343 3.789420435
-1.955168903 0.4210873573 3.902065052
-1.93311459 -0.5129015333 3.782822596
1.219894176 1.584884286 4.469322573
0.4545095345 1.947670681 4.481028807
-0.3855502185 1.962485931 4.488342861
-1.151520031 1.635237481 4.50608102
-1.705415531 1.044776468 4.553981551
-1.954840252 0.4226104471 4.702082235
-1.984501637 -0.2485020184 4.553271806
-1.721655969 -1.017792083 4.502897854
-1.160150223 -1.62912598 4.482392354
-0.3928467482 -1.961038356 4.47796578
0.4469970386 -1.949408538 4.474908774
1.215030061 -1.588616363 4.464360644
1.774807678 -0.9219857411 4.431601141
1.777438095 0.9169044762 4.433300125
1.999997025 -0.003449485747 4.319807856
-1.290737079 1.527742712 3.010050906
-0.540041826 1.925708915 2.992315255
0.2999867107 1.977374009 2.984623552
1.076900451 1.685314635 2.974375505
1.659727882 1.11593161 2.951642087
1.961160166 0.3922381968 2.898185278
1.962412583 -0.3859233769 2.899892642
1.660449448 -1.114857673 2.94985892
1.073410301 -1.687539726 2.97169279
0.2910931609 -1.9787028 2.97798906
-0.5437408956 -1.924667722 2.980666443
-1.286562971 -1.531259522 2.985790309
-1.806177863 -0.85890717 3.004501194
-1.817052 0.8356566459 3.04616397
-1.999954403 -0.01350499753 3.041491823
1.583195812 1.222084702 5.22159781
0.9324287659 1.76934355 5.234162178
0.1250912881 1.996084209 5.238249122
-0.6967468668 1.874711659 5.244404052
-1.386308567 1.441578495 5.265049223
-1.834967856 0.795545705 5.313207477
-1.999771647 0.03022187437 5.312083139
-1.856756789 -0.7432726469 5.260785205
-1.405480274 -1.422893249 5.23982493
-0.70768667 -1.870609413 5.234544595
0.1182977378 -1.996498346 5.233897629
0.927366796 -1.772001926 5.230168632
1.579905584 -1.226335332 5.218158211
1.951496325 -0.4377922957 5.187987746
1.952281315 0.4342783299 5.188560807
-1.608037796 1.189207487 2.264694738
-0.9739801812 1.746814989 2.25223646
-0.1720438941 1.992586485 2.244615259
0.6526358473 1.890520153 2.238397191
1.361193896 1.465316067 2.230457561
1.832709189 0.8007353058 2.214338585
1.999996938 0.003499500852 2.205481918
1.833980059 -0.7978202459 2.213651002
1.35900094 -1.467350144 2.228005847
0.6468356005 -1.892512538 2.233722502
-0.1801069769 -1.991873861 2.235215317
-0.9772897625 -1.744965535 2.237104479
-1.6062331 -1.191643918 2.24160063
-1.954765888 -0.4229542791 2.254900545
-1.955838693 0.4179653184 2.268566811
1.15208556 -0.02027456507 6
0.8755094174 0.9426167089 6
0.07089775937 1.160609616 6
-0.7062366379 1.195088804 6
-1.083833999 0.5140223852 6
-1.307146491 -0.2620275951 6
-0.7092683315 -0.8620810006 6
-0.07027437839 -1.382938338 6
0.6346483437 -1.235564687 6
1.04052572 -0.8267620416 6
0.2406088806 0.3459222496 6
-0.3970562399 0.6338893438 6
-0.5010256019 -0.03474710595 6
0.2553285989 -0.5737779269 6
5 0 1.5
4.928079552 0.8450041016 1.5
4.714387227 1.665698974 1.5
4.365070566 2.438474719 1.5
3.890178772 3.141099986 1.5
3.303373617 3.753361526 1.5
2.621536418 4.257645689 1.5
1.864282389 4.639445136 1.5
1.05339635 4.887776195 1.5
0.212206016 4.995494831 1.5
-0.6350890987 4.959502176 1.5
-1.464113856 4.780833674 1.5
-2.251018724 4.464629291 1.5
-2.973165882 4.019985652 1.5
-3.60978047 3.459694345 1.5
-4.142548246 2.799873931 1.5
-4.556142452 2.059506241 1.5
-4.838664735 1.259890307 1.5
-4.981987443 0.4240296224 1.5
-4.981987443 -0.4240296224 1.5
-4.838664735 -1.259890307 1.5
-4.556142452 -2.059506241 1.5
-4.142548246 -2.799873931 1.5
-3.60978047 -3.459694345 1.5
-2.973165882 -4.019985652 1.5
-2.251018724 -4.464629291 1.5
-1.464113856 -4.780833674 1.5
-0.6350890987 -4.959502176 1.5
0.212206016 -4.995494831 1.5
1.05339635 -4.887776195 1.5
1.864282389 -4.639445136 1.5
2.621536418 -4.257645689 1.5
3.303373617 -3.753361526 1.5
3.890178772 -3.141099986 1.5
4.365070566 -2.438474719 1.5
4.714387227 -1.665698974 1.5
4.928079552 -0.8450041016 1.5
4.242287565 0.2486364982 1.5
-2.573710854 0.5987432885 1.5
4.118911573 1.121936153 1.5
4.036489533 1.836595676 1.5
3.595063591 2.394005204 1.5
3.211186064 3.011744929 1.5
2.584133792 3.393251873 1.5
2.003671049 3.875777184 1.5
1.273745156 4.009391571 1.5
0.4484902698 4.224798458 1.5
-0.2165551156 4.409415088 1.5
-0.8760248478 4.187533122 1.5
-1.654035196 3.949406367 1.5
-2.323735645 3.763119773 1.5
-2.779245958 3.226789714 1.5
-3.334529999 2.572882662 1.5
-3.850155606 2.047729479 1.5
-4.069146327 1.300392314 1.5
-4.391765097 0.6606065943 1.5
-4.442810008 0.06791574603 1.5
-4.237446186 -0.570522768 1.5
-4.001035982 -1.343184809 1.5
-3.673757397 -2.051795149 1.5
-3.24394339 -2.678840424 1.5
-2.706791304 -3.231167623 1.5
-2.084295028 -3.705921125 1.5
-1.534967246 -4.108308635 1.5
-0.7761824263 -4.220007766 1.5
-0.101801667 -4.447437095 1.5
0.4912418412 -4.421067888 1.5
1.095447561 -4.137508321 1.5
1.830394921 -3.805631071 1.5
2.491471598 -3.392422924 1.5
3.061450573 -2.885847752 1.5
3.550298368 -2.276034564 1.5
3.9674442 -1.588926701 1.5
4.322819222 -1.029437397 1.5
4.417485427 -0.446426052 1.5
-2.712305027 -0.5197562109 1.5
-2.257624998 -1.585312596 1.5
-1.424970132 -2.359464617 1.5
-0.3224680268 -2.65147518 1.5
0.8283620777 -2.641499153 1.5
1.838179526 -2.057982355 1.5
2.527314694 -1.124165289 1.5
2.656203728 -8.938695784e-05 1.5
2.490339527 1.159346152 1.5
1.714474324 1.999142104 1.5
0.8288874515 2.479877147 1.5
-0.2377085912 2.731831875 1.5
-1.401504133 2.361508415 1.5
-2.126575669 1.527844063 1.5
3.415149696 0.5821478467 1.5
3.388396536 1.577910068 1.5
2.665275671 2.372672855 1.5
1.669842636 3.070396917 1.5
0.6256145204 3.369002058 1.5
-0.2195385277 3.710432275 1.5
-1.947728653 3.171667085 1.5
-2.456944621 2.396429414 1.5
-3.148902857 1.531245628 1.5
-3.639407571 0.2931302073 1.5
-3.553287744 -0.7050865011 1.5
-2.951797657 -2.037948231 1.5
-1.947290992 -3.033533024 1.5
-1.131107222 -3.390174081 1.5
0.1540227457 -3.667517955 1.5
1.133036344 -3.448391072 1.5
2.382674916 -2.682180718 1.5
3.280923305 -1.536060703 1.5
3.60370348 -0.6117901481 1.5
-3.191634801 -1.373847249 1.5
-2.422069746 -2.487711086 1.5
1.750686564 -3.004684549 1.5
2.773473564 -2.093711897 1.5
-1.056089992 3.35206319 1.5
5 0 -1.5
4.928079552 -0.8450041016 -1.5
4.714387227 -1.665698974 -1.5
4.365070566 -2.438474719 -1.5
3.890178772 -3.141099986 -1.5
3.303373617 -3.753361526 -1.5
2.621536418 -4.257645689 -1.5
1.864282389 -4.639445136 -1.5
1.05339635 -4.887776195 -1.5
0.212206016 -4.995494831 -1.5
-0.6350890987 -4.959502176 -1.5
-1.464113856 -4.780833674 -1.5
-2.251018724 -4.464629291 -1.5
-2.973165882 -4.019985652 -1.5
-3.60978047 -3.459694345 -1.5
-4.142548246 -2.799873931 -1.5
-4.556142452 -2.059506241 -1.5
-4.838664735 -1.259890307 -1.5
-4.981987443 -0.4240296224 -1.5
-4.981987443 0.4240296224 -1.5
-4.838664735 1.259890307 -1.5
-4.556142452 2.059506241 -1.5
-4.142548246 2.799873931 -1.5
-3.60978047 3.459694345 -1.5
-2.973165882 4.019985652 -1.5
-2.251018724 4.464629291 -1.5
-1.464113856 4.780833674 -1.5
-0.6350890987 4.959502176 -1.5
0.212206016 4.995494831 -1.5
1.05339635 4.887776195 -1.5
1.864282389 4.639445136 -1.5
2.621536418 4.257645689 -1.5
3.303373617 3.753361526 -1.5
3.890178772 3.141099986 -1.5
4.365070566 2.438474719 -1.5
4.714387227 1.665698974 -1.5
4.928079552 0.8450041016 -1.5
4.714385703 -1.665703289 -0.006353639865
4.365082925 -2.438452595 -0.00728358259
3.890184719 -3.141092621 -0.007710511802
3.303380627 -3.753355356 -0.007723070452
2.621544601 -4.25764065 -0.007724568434
1.864291402 -4.639441515 -0.007724740106
1.053405875 -4.887774142 -0.007724757993
0.2122157592 -4.995494417 -0.007724759383
-0.6350794237 -4.959503415 -0.007724759353
-1.464104529 -4.78083653 -0.007724759299
-2.251010014 -4.464633682 -0.00772475928
-2.973158039 -4.019991452 -0.007724759275
-3.60977372 -3.459701387 -0.007724759274
-4.142542784 -2.799882013 -0.007724759273
-4.556138434 -2.05951513 -0.007724759273
-4.838662277 -1.259899747 -0.007724759273
-4.981986615 -0.424039342 -0.007724759273
-4.98198827 0.4240199028 -0.007724759273
-4.838667193 1.259880867 -0.007724759273
-4.55614647 2.059497352 -0.007724759273
-4.142553709 2.799865849 -0.007724759272
-3.60978722 3.459687302 -0.00772475927
-2.973173725 4.019979851 -0.007724759262
-2.251027435 4.464624899 -0.007724759242
-1.464123187 4.780830816 -0.007724759228
-0.6350987853 4.959500936 -0.007724759557
0.2121962351 4.995495246 -0.007724763134
1.053386709 4.887778272 -0.00772479054
1.864273048 4.63944889 -0.007724973303
2.621527399 4.257651242 -0.007726087931
3.3033648 3.753369286 -0.007732356757
3.890170171 3.141110638 -0.007764476041
4.365062885 2.438488468 -0.007910236554
4.714408343 1.66563921 -0.007738730342
4.928054207 0.845151901 -0.008407745974
4.928092334 -0.8449295503 -0.007724780224
4.999999996 -0.0001999126546 -0.009517600369
[...]
POINT_DATA 928
SCALARS GLOBAL_ID int 1
LOOKUP_TABLE default
8137 
8138 
8139 
8140 
8141 
8142 
8143 
8144 
8145 
8146 
8147 
8148 
8149 
8150 
8151 
8152 
8153 
8154 
8155 
8156 
8157 
8158 
8159 
8160 
8161 
8162 
8163 
8164 
8165 
8166 
8167 
8168 
8169 
8170 
8171 
8172 
8173 
8174 
8175 
8176 
8177 
8178 
8179 
8180 
8181 
8182 
8183 
8184 
8185 
8186 
8187 
8188 
8189 
8190 
8191 
8192 
8193 
8194 
8195 
8196 
8197 
8198 
8199 
8200 
8201 
8202 
8203 
8204 
8205 
8206 
8207 
8208 
8209 
8210 
8211 
8212 
8213 
8214 
8215 
8216 
8217 
8218 
8219 
8220 
8221 
8222 
8223 
8224 
8225 
8226 
8227 
8228 
8229 
8230 
8231 
8232 
8233 
8234 
8235 
8236 
8237 
8238 
8239 
8240 
8241 
8242 
8243 
8244 
8245 
8246 
8247 
8248 
8249 
8250 
8251 
8252 
8253 
8254 
8255 
8256 
8257 
8258 
8259 
8260 
8261 
8262 
8263 
8264 
8265 
8266 
8267 
8268 
8269 
8270 
8271 
8272 
8273 
8274 
8275 
8276 
8277 
8278 
8279 
8280 
8281 
8282 
8283 
8284 
8285 
8286 
8287 
8288 
8289 
8290 
8291 
8292 
8293 
8294 
8295 
8296 
8297 
8298 
8299 
8300 
8301 
8302 
8303 
8304 
8305 
8306 
8307 
8308 
8309 
8310 
8311 
8312 
8313 
8314 
8315 
8316 
8317 
8318 
8319 
8320 
8321 
8322 
8323 
8324 
8325 
8326 
8327 
8328 
8329 
8330 
8331 
8332 
8333 
8334 
8335 
8336 
8337 
8338 
8339 
8340 
8341 
8342 
8343 
8344 
8345 
8346 
8347 
8348 
8349 
8350 
8351 
8352 
8353 
8354 
8355 
8356 
8357 
8358 
8359 
8360 
8361 
8362 
8363 
8364 
8365 
8366 
8367 
8368 
8369 
8370 
8371 
8372 
8373 
8374 
8375 
8376 
8377 
8378 
8379 
8380 
8381 
8382 
8383 
8384 
8385 
8386 
8387 
8388 
8389 
8390 
8391 
8392 
8393 
8394 
8395 
8396 
8397 
8398 
8399 
8400 
8401 
8402 
8403 
8404 
8405 
8406 
8407 
8408 
8409 
8410 
8411 
8412 
8413 
8414 
8415 
8416 
8417 
8418 
8419 
8420 
8421 
8422 
8423 
8424 
8425 
8426 
8427 
8428 
8429 
8430 
8431 
8432 
8433 
8434 
8435 
8436 
8437 
8438 
8439 
8440 
8441 
8442 
8443 
8444 
8445 
8446 
8447 
8448 
8449 
8450 
8451 
8452 
8453 
8454 
8455 
8456 
8457 
8458 
8459 
8460 
8461 
8462 
8463 
8464 
8465 
8466 
8467 
8468 
8469 
8470 
8471 
8472 
8473 
8474 
8475 
8476 
8477 
8478 
8479 
8480 
8481 
8482 
8483 
8484 
8485 
8486 
8487 
8488 
8489 
8490 
8491 
8492 
8493 
8494 
8495 
8496 
8497 
8498 
8499 
8500 
8501 
8502 
8503 
8504 
8505 
8506 
8507 
8508 
8509 
8510 
8511 
8512 
8513 
8514 
8515 
8516 
8517 
8518 
8519 
8520 
8521 
8522 
8523 
8524 
8525 
8526 
8527 
8528 
8529 
8530 
8531 
8532 
8533 
8534 
8535 
8536 
8537 
8538 
8539 
8540 
8541 
8542 
8543 
8544 
8545 
8546 
8547 
8548 
8549 
8550 
8551 
8552 
8553 
8554 
8555 
8556 
8557 
8558 
8559 
8560 
8561 
8562 
8563 
8564 
8565 
8566 
8567 
8568 
8569 
8570 
8571 
8572 
8573 
8574 
8575 
8576 
8577 
8578 
8579 
8580 
8581 
8582 
8583 
8584 
8585 
8586 
8587 
8588 
8589 
8590 
8591 
8592 
8593 
8594 
8595 
8596 
8597 
8598 
8599 
8600 
8601 
8602 
8603 
8604 
8605 
8606 
8607 
8608 
8609 
8610 
8611 
8612 
8613 
8614 
8615 
8616 
8617 
8618 
8619 
8620 
8621 
8622 
8623 
8624 
8625 
8626 
8627 
8628 
8629 
8630 
8631 
8632 
8633 
8634 
8635 
8636 
8637 
8638 
8639 
8640 
8641 
8642 
8643 
8644 
8645 
8646 
8647 
8648 
8649 
8650 
8651 
8652 
8653 
8654 
8655 
8656 
8657 
8658 
8659 
8660 
8661 
8662 
8663 
8664 
8665 
8666 
8667 
8668 
8669 
8670 
8671 
8672 
8673 
8674 
8675 
8676 
8677 
8678 
8679 
8680 
8681 
8682 
8683 
8684 
8685 
8686 
8687 
8688 
8689 
8690 
8691 
8692 
8693 
8694 
8695 
8696 
8697 
8698 
8699 
8700 
8701 
8702 
8703 
8704 
8705 
8706 
8707 
8708 
8709 
8710 
8711 
8712 
8713 
8714 
8715 
8716 
8717 
8718 
8719 
8720 
8721 
8722 
8723 
8724 
8725 
8726 
8727 
8728 
8729 
8730 
8731 
8732 
8733 
8734 
8735 
8736 
8737 
8738 
8739 
8740 
8741 
8742 
8743 
8744 
8745 
8746 
8747 
8748 
8749 
8750 
8751 
8752 
8753 
8754 
8755 
8756 
8757 
8758 
8759 
8760 
8761 
8762 
8763 
8764 
8765 
8766 
8767 
8768 
8769 
8770 
8771 
8772 
8773 
8774 
8775 
8776 
8777 
8778 
8779 
8780 
8781 
8782 
8783 
8784 
8785 
8786 
8787 
8788 
8789 
8790 
8791 
8792 
8793 
8794 
8795 
8796 
8797 
8798 
8799 
8800 
8801 
8802 
8803 
8804 
8805 
8806 
8807 
8808 
8809 
8810 
8811 
8812 
8813 
8814 
8815 
8816 
8817 
8818 
8819 
8820 
8821 
8822 
8823 
8824 
8825 
8826 
8827 
8828 
8829 
8830 
8831 
8832 
8833 
8834 
8835 
8836 
8837 
8838 
8839 
8840 
8841 
8842 
8843 
8844 
8845 
8846 
8847 
8848 
8849 
8850 
8851 
8852 
8853 
8854 
8855 
8856 
8857 
8858 
8859 
8860 
8861 
8862 
8863 
8864 
8865 
8866 
8867 
8868 
8869 
8870 
8871 
8872 
8873 
8874 
8875 
8876 
8877 
8878 
8879 
8880 
8881 
8882 
8883 
8884 
8885 
8886 
8887 
8888 
8889 
8890 
8891 
8892 
8893 
8894 
8895 
8896 
8897 
8898 
8899 
8900 
8901 
8902 
8903 
8904 
8905 
8906 
8907 
8908 
8909 
8910 
8911 
8912 
8913 
8914 
8915 
8916 
8917 
8918 
8919 
8920 
8921 
8922 
8923 
8924 
8925 
8926 
8927 
8928 
8929 
8930 
8931 
8932 
8933 
8934 
8935 
8936 
8937 
8938 
8939 
8940 
8941 
8942 
8943 
8944 
8945 
8946 
8947 
8948 
8949 
8950 
8951 
8952 
8953 
8954 
8955 
8956 
8957 
8958 
8959 
8960 
8961 
8962 
8963 
8964 
8965 
8966 
8967 
8968 
8969 
8970 
8971 
8972 
8973 
8974 
8975 
8976 
8977 
8978 
8979 
8980 
8981 
8982 
8983 
8984 
8985 
8986 
8987 
8988 
8989 
8990 
8991 
8992 
8993 
8994 
8995 
8996 
8997 
8998 
8999 
9000 
9001 
9002 
9003 
9004 
9005 
9006 
9007 
9008 
9009 
9010 
9011 
9012 
9013 
9014 
9015 
9016 
9017 
9018 
9019 
9020 
9021 
9022 
9023 
9024 
9025 
9026 
9027 
9028 
9029 
9030 
9031 
9032 
9033 
9034 
9035 
9036 
9037 
9038 
9039 
9040 
9041 
9042 
9043 
9044 
9045 
9046 
9047 
9048 
9049 
9050 
9051 
9052 
9053 
9054 
9055 
9056 
9057 
9058 
9059 
9060 
9061 
9062 
9063 
9064 
CELL_DATA 6417
SCALARS GLOBAL_ID int 1
LOOKUP_TABLE default
8235 
8234 
8233 
8232 
8231 
8230 
8229 
8228 
8227 
8226 
8225 
8224 
8223 
8222 
8221 
8220 
8219 
8218 
8217 
8216 
8215 
8214 
8213 
8212 
8211 
8210 
8209 
8208 
8207 
8206 
8205 
8204 
8203 
8202 
8201 
8200 
8199 
8198 
8197 
8196 
8195 
8194 
8193 
8192 
8191 
8190 
8189 
8188 
8187 
8186 
8185 
8184 
8183 
8182 
8181 
8180 
8179 
8178 
8177 
8176 
8175 
8174 
8173 
8172 
8171 
8170 
8169 
8168 
8167 
8166 
8165 
8164 
8163 
8162 
8161 
8160 
8159 
8158 
8157 
8156 
8155 
8154 
8153 
8152 
8151 
8150 
8149 
8148 
8147 
8146 
8145 
8144 
8143 
8142 
8141 
8140 
8139 
8138 
8137 
8136 
8135 
8134 
8133 
8132 
8131 
8130 
8129 
8128 
8127 
8126 
8125 
8124 
8123 
8122 
8121 
8120 
8119 
8118 
8117 
8116 
8115 
8114 
8113 
8112 
8111 
8110 
8109 
8108 
8107 
8106 
8105 
8104 
8103 
8102 
8101 
8100 
8099 
8098 
8097 
8096 
8095 
8094 
8093 
8092 
8091 
8090 
8089 
8088 
8087 
8086 
8085 
8084 
8083 
8082 
8081 
8080 
8079 
8078 
8077 
8076 
8075 
8074 
8073 
8072 
8071 
8070 
8069 
8068 
8067 
8066 
8065 
8064 
8063 
8062 
8061 
8060 
8059 
8058 
8057 
8056 
8055 
8054 
8053 
8052 
8051 
8050 
8049 
8048 
8047 
8046 
8045 
8044 
8043 
8042 
8041 
8040 
8039 
8038 
8037 
8036 
8035 
8034 
8033 
8032 
8031 
8030 
8029 
8028 
8027 
8026 
8025 
8024 
8023 
8022 
8021 
8020 
8019 
8018 
8017 
8016 
8015 
8014 
8013 
8012 
8011 
8010 
8009 
8008 
8007 
8006 
8005 
8004 
8003 
8002 
8001 
8000 
7999 
7998 
7997 
7996 
7995 
7994 
7993 
7992 
7991 
7990 
7989 
7988 
7987 
7986 
7985 
7984 
7983 
7982 
7981 
8606 
8605 
8604 
8603 
8602 
8601 
8600 
8599 
8598 
8597 
8596 
8595 
8594 
8593 
8592 
8591 
8590 
8589 
8588 
8587 
8586 
8585 
8584 
8583 
8582 
8581 
8580 
8579 
8578 
8577 
8576 
8575 
8574 
8573 
8572 
8571 
8570 
8569 
8568 
8567 
8566 
8565 
8564 
8563 
8562 
8561 
8560 
8559 
8558 
8557 
8556 
8555 
8554 
8553 
8552 
8551 
8550 
8549 
8548 
8547 
8546 
8545 
8544 
8543 
8542 
8541 
8540 
8539 
8538 
8537 
8536 
8535 
8534 
8533 
8532 
8531 
8530 
8529 
8528 
8527 
8526 
8525 
8524 
8523 
8522 
8521 
8520 
8519 
8518 
8517 
8516 
8515 
8514 
8513 
8512 
8511 
8510 
8509 
8508 
8507 
8506 
8505 
8504 
8503 
8502 
8501 
8500 
8499 
8498 
8497 
8496 
8495 
8494 
8493 
8492 
8491 
8490 
8489 
8488 
8487 
8486 
8485 
8484 
8483 
8482 
8481 
8480 
8479 
8478 
8477 
8476 
8475 
8474 
8473 
8472 
8471 
8470 
8469 
8468 
8467 
8466 
8465 
8464 
8463 
8462 
8461 
8460 
8459 
8458 
8457 
8456 
8455 
8454 
8453 
8452 
8451 
8450 
8449 
8448 
8447 
8446 
8445 
8444 
8443 
8442 
8441 
8440 
8439 
8438 
8437 
8436 
8435 
8434 
8433 
8432 
8431 
8430 
8429 
8428 
8427 
8426 
8425 
8424 
8423 
8422 
8421 
8420 
8419 
8418 
8417 
8416 
8415 
8414 
8413 
8412 
8411 
8410 
8409 
8408 
8407 
8406 
8405 
8404 
8403 
8402 
8401 
8400 
8399 
8398 
8397 
8396 
8395 
8394 
8393 
8392 
8391 
8390 
8389 
8388 
8387 
8386 
8385 
8384 
8383 
8382 
8381 
8380 
8379 
8378 
8377 
8376 
8375 
8374 
8373 
8372 
8371 
8370 
8369 
8368 
8367 
8366 
8365 
8364 
8363 
8362 
8361 
8360 
8359 
8358 
8357 
8356 
8355 
8354 
8353 
8352 
8351 
8350 
8349 
8348 
8347 
8346 
8345 
8344 
8343 
8342 
8341 
8340 
8339 
8338 
8337 
8336 
8335 
8334 
8333 
8332 
8331 
8330 
8329 
8328 
8327 
8289 
8288 
8287 
8286 
8285 
8284 
8283 
8282 
8281 
8280 
8279 
8278 
8277 
8276 
8275 
8274 
8273 
8272 
8271 
8270 
8269 
8268 
8267 
8266 
8265 
8264 
8263 
8262 
8261 
8260 
8259 
8258 
8257 
8256 
8255 
8254 
8253 
8252 
8251 
8250 
8249 
8248 
8247 
8246 
8245 
8244 
8243 
8242 
8241 
8240 
8239 
8238 
8237 
8236 
9414 
9413 
9412 
9411 
9410 
9409 
9408 
9407 
9406 
9405 
9404 
9403 
9402 
9401 
9400 
9399 
9398 
9397 
9396 
9395 
9394 
9393 
9392 
9391 
9390 
9389 
9388 
9387 
9386 
9385 
9384 
9383 
9382 
9381 
9380 
9379 
9378 
9377 
9376 
9375 
9374 
9373 
9372 
9371 
9370 
9369 
9368 
9367 
9366 
9365 
9364 
9363 
9362 
9361 
9360 
9359 
9358 
9357 
9356 
9355 
9354 
9353 
9352 
9351 
9350 
9349 
9348 
9347 
9346 
9345 
9344 
9343 
9342 
9341 
9340 
9339 
9338 
9337 
9336 
9335 
9334 
9333 
9332 
9331 
9330 
9329 
9328 
9327 
9326 
9325 
9324 
9323 
9322 
9321 
9320 
9319 
9318 
9317 
9316 
9315 
9314 
9313 
9312 
9311 
9310 
9309 
9308 
9307 
9306 
9305 
9304 
9303 
9302 
9301 
9300 
9299 
9298 
9297 
9296 
9295 
9294 
9293 
9292 
9291 
9290 
9289 
9288 
9287 
9286 
9285 
9284 
9283 
9282 
9281 
9280 
9279 
9278 
9277 
9276 
9275 
9274 
9273 
9272 
9271 
9270 
9269 
9268 
9267 
9266 
9265 
9264 
9263 
9262 
9261 
9260 
9259 
9258 
9257 
9256 
9255 
9254 
9253 
9252 
9251 
9250 
9249 
9248 
9247 
9246 
9245 
9244 
9243 
9242 
9241 
9240 
9239 
9238 
9237 
9236 
9235 
9234 
9233 
9232 
9231 
9230 
9229 
9228 
9227 
9226 
9225 
9224 
9223 
9222 
9221 
9220 
9219 
9218 
9217 
9216 
9215 
9214 
9213 
9212 
9211 
9210 
9209 
9208 
9207 
9206 
9205 
9204 
9203 
9202 
9201 
9200 
9199 
9198 
9197 
9196 
9195 
9194 
9193 
9192 
9191 
9190 
9189 
9188 
9187 
9186 
9185 
9184 
9183 
9182 
9181 
9180 
9179 
9178 
9177 
9176 
9175 
9174 
9173 
9172 
9171 
9170 
9169 
9168 
9167 
9166 
9165 
9164 
9163 
9162 
9161 
9160 
9159 
9158 
9157 
9156 
9155 
9154 
9153 
9152 
9151 
9150 
9149 
9148 
9147 
9146 
9145 
9144 
9143 
9142 
9141 
9140 
9139 
9138 
9137 
9136 
9135 
9134 
9133 
9132 
9131 
9130 
9129 
9128 
9127 
9126 
9125 
9124 
9123 
9122 
9121 
9120 
9119 
9118 
9117 
9116 
9115 
9114 
9113 
9112 
9111 
9110 
9109 
9108 
9107 
9106 
9105 
9104 
9103 
9102 
9101 
9100 
9099 
9098 
9097 
9096 
9095 
9094 
9093 
9092 
9091 
9090 
9089 
9088 
9087 
9086 
9085 
9084 
9083 
9082 
9081 
9080 
9079 
9078 
9077 
9076 
9075 
9074 
9073 
9072 
9071 
9070 
9069 
9068 
9067 
9066 
9065 
9064 
9063 
9062 
9061 
9060 
9059 
9058 
9057 
9056 
9055 
9054 
9053 
9052 
9051 
7965 
7964 
7963 
7962 
7961 
7960 
7959 
7958 
7957 
7956 
7955 
7954 
7953 
7952 
7951 
7980 
7979 
7978 
7977 
7976 
7975 
7974 
7973 
7972 
7971 
7970 
7969 
7968 
7967 
7966 
8326 
8325 
8324 
8323 
8322 
8321 
8320 
8319 
8318 
8317 
8316 
8315 
8314 
8313 
8312 
8311 
8310 
8309 
8308 
8307 
8306 
8305 
8304 
8303 
8302 
8301 
8300 
8299 
8298 
8297 
8296 
8295 
8294 
8293 
8292 
8291 
8290 
8643 
8642 
8641 
8640 
8639 
8638 
8637 
8636 
8635 
8634 
8633 
8632 
8631 
8630 
8629 
8628 
8627 
8626 
8625 
8624 
8623 
8622 
8621 
8620 
8619 
8618 
8617 
8616 
8615 
8614 
8613 
8612 
8611 
8610 
8609 
8608 
8607 
9050 
9049 
9048 
9047 
9046 
9045 
9044 
9043 
9042 
9041 
9040 
9039 
9038 
9037 
9036 
9035 
9034 
9033 
9032 
9031 
9030 
9029 
9028 
9027 
9026 
9025 
9024 
9023 
9022 
9021 
9020 
9019 
9018 
9017 
9016 
9015 
9014 
9013 
9012 
9011 
9010 
9009 
9008 
9007 
9006 
9005 
9004 
9003 
9002 
9001 
9000 
8999 
8998 
8997 
8996 
8995 
8994 
8993 
8992 
8991 
8990 
8989 
8988 
8987 
8986 
8985 
8984 
8983 
8982 
8981 
8980 
8979 
8978 
8977 
8976 
8975 
8974 
8973 
8972 
8971 
8970 
8969 
8968 
8967 
8966 
8965 
8964 
8963 
8962 
8961 
8960 
8959 
8958 
8957 
8956 
8955 
8954 
8953 
8952 
8951 
8950 
8949 
8948 
8947 
8946 
8945 
8944 
8943 
8942 
8941 
8940 
8939 
8938 
8937 
8936 
8935 
8934 
8933 
8932 
8931 
8930 
8929 
8928 
8927 
8926 
8925 
8924 
8923 
8922 
8921 
8920 
8919 
8918 
8917 
8916 
8915 
8914 
8913 
8912 
8911 
8910 
8909 
8908 
8907 
8906 
8905 
8904 
8903 
8902 
8901 
8900 
8899 
8898 
8897 
8896 
8895 
8894 
8893 
8892 
8891 
8890 
8889 
8888 
8887 
8886 
8885 
8884 
8883 
8882 
8881 
8880 
8879 
8878 
8877 
8876 
8875 
8874 
8873 
8872 
8871 
8870 
8869 
8868 
8867 
8866 
8865 
8864 
8863 
8862 
8861 
8860 
8859 
8858 
8857 
8856 
8855 
8854 
8853 
8852 
8851 
8850 
8849 
8848 
8847 
8846 
8845 
8844 
8843 
8842 
8841 
8840 
8839 
8838 
8837 
8836 
8835 
8834 
8833 
8832 
8831 
8830 
8829 
8828 
8827 
8826 
8825 
8824 
8823 
8822 
8821 
8820 
8819 
8818 
8817 
8816 
8815 
8814 
8813 
8812 
8811 
8810 
8809 
8808 
8807 
8806 
8805 
8804 
8803 
8802 
8801 
8800 
8799 
8798 
8797 
8796 
8795 
8794 
8793 
8792 
8791 
8790 
8789 
8788 
8787 
8786 
8785 
8784 
8783 
8782 
8781 
8780 
8779 
8778 
8777 
8776 
8775 
8774 
8773 
8772 
8771 
8770 
8769 
8768 
8767 
8766 
8765 
8764 
8763 
8762 
8761 
8760 
8759 
8758 
8757 
8756 
8755 
8754 
8753 
8752 
8751 
8750 
8749 
8748 
8747 
8746 
8745 
8744 
8743 
8742 
8741 
8740 
8739 
8738 
8737 
8736 
8735 
8734 
8733 
8732 
8731 
8730 
8729 
8728 
8727 
8726 
8725 
8724 
8723 
8722 
8721 
8720 
8719 
8718 
8717 
8716 
8715 
8714 
8713 
8712 
8711 
8710 
8709 
8708 
8707 
8706 
8705 
8704 
8703 
8702 
8701 
8700 
8699 
8698 
8697 
8696 
8695 
8694 
8693 
8692 
8691 
8690 
8689 
8688 
8687 
8686 
8685 
8684 
8683 
8682 
8681 
8680 
8679 
8678 
8677 
8676 
8675 
8674 
8673 
8672 
8671 
8670 
8669 
8668 
8667 
8666 
8665 
8664 
8663 
8662 
8661 
8660 
8659 
8658 
8657 
8656 
8655 
8654 
8653 
8652 
8651 
8650 
8649 
8648 
8647 
8646 
8645 
8644 
5480 
5479 
5478 
5477 
5476 
5475 
5474 
5473 
5472 
5471 
5470 
5469 
5468 
5467 
5466 
5465 
5464 
5463 
5462 
5461 
5460 
5459 
5458 
5457 
5456 
5455 
5454 
5453 
5452 
5451 
5450 
5449 
5448 
5447 
5446 
5445 
5444 
5443 
5442 
5441 
5440 
5439 
5438 
5437 
5436 
5435 
5434 
5433 
5432 
5431 
5430 
5429 
5428 
5427 
5426 
5425 
5424 
5423 
5422 
5421 
5420 
5419 
5418 
5417 
5416 
5415 
5414 
5413 
5412 
5411 
5410 
5409 
5408 
5407 
5406 
5405 
5404 
5403 
5402 
5401 
5400 
5399 
5398 
5397 
5396 
5395 
5394 
5393 
5392 
5391 
5390 
5389 
5388 
5387 
5386 
5385 
5384 
5383 
5382 
5381 
5380 
5379 
5378 
5377 
5376 
5375 
5374 
5373 
5372 
5371 
5370 
5369 
5368 
5367 
5366 
5365 
5364 
5363 
5362 
5361 
5360 
5359 
5358 
5357 
5356 
5355 
5354 
5353 
5352 
5351 
5350 
5349 
5348 
5347 
5346 
5345 
5344 
5343 
5342 
5341 
5340 
5339 
5338 
5337 
5336 
5335 
5334 
5333 
5332 
5331 
5330 
5329 
5328 
5327 
5326 
5325 
5324 
5323 
5322 
5321 
5320 
5319 
5318 
5317 
5316 
5315 
5314 
5313 
5312 
5311 
5310 
5309 
5308 
5307 
5306 
5305 
5304 
5303 
5302 
5301 
5725 
5724 
5723 
5722 
5721 
5720 
5719 
5718 
5717 
5716 
5715 
5714 
5713 
5712 
5711 
5710 
5709 
5708 
5707 
5706 
5705 
5704 
5703 
5702 
5701 
5700 
5699 
5698 
5697 
5696 
5695 
5694 
5693 
5692 
5691 
5690 
5689 
5688 
5687 
5686 
5685 
5684 
5683 
5682 
5681 
5680 
5679 
5678 
5677 
5676 
5675 
5674 
5673 
5672 
5671 
5670 
5669 
5668 
5667 
5666 
5665 
5664 
5663 
5662 
5661 
5660 
5659 
5658 
5657 
5656 
5655 
5654 
5653 
5652 
5651 
5650 
5649 
5648 
5647 
5646 
5645 
5644 
5643 
5642 
5641 
5640 
5639 
5638 
5637 
5636 
5635 
5634 
5633 
5632 
5631 
5630 
5629 
5628 
5627 
5626 
5625 
5624 
5623 
5622 
5621 
5620 
5619 
5618 
5617 
5616 
5615 
5614 
5613 
5612 
5611 
5610 
5609 
5608 
5607 
5606 
5605 
5604 
5603 
5602 
5601 
5600 
5599 
5598 
5597 
5596 
5595 
5594 
5593 
5592 
5591 
5590 
5589 
5588 
5587 
5586 
5585 
5584 
5583 
5582 
5581 
5580 
5579 
5578 
5577 
5576 
5575 
5574 
5573 
5572 
5571 
5570 
5569 
5568 
5567 
5566 
5565 
5564 
5563 
5562 
5561 
5560 
5559 
5558 
5557 
5556 
5555 
5554 
5553 
5552 
5551 
5550 
5549 
5548 
5547 
5546 
5545 
5544 
5543 
5542 
5541 
5540 
5539 
5538 
5537 
5536 
5535 
5534 
5533 
5532 
5531 
5530 
5529 
5528 
5527 
5526 
5525 
5524 
5523 
5522 
5521 
5520 
5519 
5518 
5517 
5516 
5515 
5514 
5513 
5512 
5511 
5510 
5509 
5508 
5507 
5506 
5505 
5504 
5503 
5502 
5501 
5500 
5499 
5498 
5497 
5496 
5495 
5494 
5493 
5492 
5491 
5490 
5489 
5488 
5487 
5486 
5485 
5484 
5483 
5482 
5481 
6276 
6275 
6274 
6273 
6272 
6271 
6270 
6269 
6268 
6267 
6266 
6265 
6264 
6263 
6262 
6261 
6260 
6259 
6258 
6257 
6256 
6255 
6254 
6253 
6252 
6251 
6250 
6249 
6248 
6247 
6246 
6245 
6244 
6243 
6242 
6241 
6240 
6239 
6238 
6237 
6236 
6235 
6234 
6233 
6232 
6231 
6230 
6229 
6228 
6227 
6226 
6225 
6224 
6223 
6222 
6221 
6220 
6219 
6218 
6217 
6216 
6215 
6214 
6213 
6212 
6211 
6210 
6209 
6208 
6207 
6206 
6205 
6204 
6203 
6202 
6201 
6200 
6199 
6198 
6197 
6196 
6195 
6194 
6193 
6192 
6191 
6190 
6189 
6188 
6187 
6186 
6185 
6184 
6183 
6182 
6181 
6180 
6179 
6178 
6177 
6176 
6175 
6174 
6173 
6172 
6171 
6170 
6169 
6168 
6167 
6166 
6165 
6164 
6163 
6162 
6161 
6160 
6159 
6158 
6157 
6156 
6155 
6154 
6153 
6152 
6151 
6150 
6149 
6148 
6147 
6146 
6145 
6144 
6143 
6142 
6141 
6140 
6139 
6138 
6137 
6136 
6135 
6134 
6133 
6132 
6131 
6130 
6129 
6128 
6127 
6126 
6125 
6124 
6123 
6122 
6121 
6120 
6119 
6118 
6117 
6116 
6115 
6114 
6113 
6112 
6111 
6110 
6109 
6108 
6107 
6106 
6105 
6104 
6103 
6102 
6101 
6100 
6099 
6098 
6097 
6096 
6095 
6094 
6093 
6092 
6091 
6090 
6089 
6088 
6087 
6086 
6085 
6084 
6083 
6082 
6081 
6080 
6079 
6078 
6077 
6076 
6075 
6074 
6073 
6072 
6071 
6070 
6069 
6068 
6067 
6066 
6065 
6064 
6063 
6062 
6061 
6060 
6059 
6058 
6057 
6056 
6055 
6054 
6053 
6052 
6051 
6050 
6049 
6048 
6047 
6046 
6045 
6044 
6043 
6042 
6041 
6040 
6039 
6038 
6037 
6036 
6035 
6034 
6033 
6032 
6031 
6030 
6029 
6028 
6027 
6026 
6025 
6024 
6023 
6022 
6021 
6020 
6019 
6018 
6017 
6016 
6015 
6014 
6013 
6012 
6011 
6010 
6009 
6008 
6007 
6006 
6005 
6004 
6003 
6002 
6001 
6000 
5999 
5998 
5997 
5996 
5995 
5994 
5993 
5992 
5991 
5990 
5989 
5988 
5987 
5986 
5985 
5984 
5983 
5982 
5981 
5980 
5979 
5978 
5977 
5976 
5975 
5974 
5973 
5972 
5971 
5970 
5969 
5968 
5967 
5966 
5965 
5964 
5963 
5962 
5961 
5960 
5959 
5958 
5957 
5956 
5955 
5954 
5953 
5952 
5951 
5950 
5949 
5948 
5947 
5946 
5945 
5944 
5943 
5942 
5941 
5940 
5939 
5938 
5937 
5936 
5935 
5934 
5933 
5932 
5931 
5930 
5929 
5928 
5927 
5926 
5925 
5924 
5923 
5922 
5921 
5920 
5919 
5918 
5917 
5916 
5915 
5914 
5913 
5912 
5911 
5910 
5909 
5908 
5907 
5906 
5905 
5904 
5903 
5902 
5901 
5900 
5899 
5898 
5897 
5896 
5895 
5894 
5893 
5892 
5891 
5890 
5889 
5888 
5887 
5886 
5885 
5884 
5883 
5882 
5881 
5880 
5879 
5878 
5877 
5876 
5875 
5874 
5873 
5872 
5871 
5870 
5869 
5868 
5867 
5866 
5865 
5864 
5863 
5862 
5861 
5860 
5859 
5858 
5857 
5856 
5855 
5854 
5853 
5852 
5851 
5850 
5849 
5848 
5847 
5846 
5845 
5844 
5843 
5842 
5841 
5840 
5839 
5838 
5837 
5836 
5835 
5834 
5833 
5832 
5831 
5830 
5829 
5828 
5827 
5826 
5825 
5824 
5823 
5822 
5821 
5820 
5819 
5818 
5817 
5816 
5815 
5814 
5813 
5812 
5811 
5810 
5809 
5808 
5807 
5806 
5805 
5804 
5803 
5802 
5801 
5800 
5799 
5798 
5797 
5796 
5795 
5794 
5793 
5792 
5791 
5790 
5789 
5788 
5787 
5786 
5785 
5784 
5783 
5782 
5781 